 Gaussian 16, Revision A.03,
 Gaussian 16:  ES64L-G16RevA.03 25-Dec-2016

 ----------------------------------------------------------------------
 # p TDA(nstates=10, root=1) CAM-B3LYP/6-31G(d) geom=allcheck guess=rea
 d nosymm scrf=check iop(9/40=4)
 ----------------------------------------------------------------------

 Structure from the checkpoint file:  "SP_ExSt_TDA_p_nitro_biphenyl_single_nbd_aniline_derivative.chk"
 ----------------------------------------------
 p_nitro_biphenyl_single_nbd_aniline_derivative
 ----------------------------------------------
 Charge =  0 Multiplicity = 1

                          Input orientation:
 ---------------------------------------------------------------------
 Center     Atomic      Atomic             Coordinates (Angstroms)
 Number     Number       Type             X           Y           Z
 ---------------------------------------------------------------------
      1          6           0       -0.381307    0.022022   -0.243450
      2          6           0        0.758868   -0.205253    0.615081
      3          6           0       -1.561403    0.249165    0.426985
      4          6           0        0.675233   -0.192370    2.046746
      5          7           0        2.000465   -0.477716    0.286124
      6          6           0       -0.289115   -0.002894   -1.703761
      7          6           0       -1.664755    0.262132    1.842226
      8          1           0       -2.462399    0.457539   -0.136127
      9          6           0       -0.590882    0.055544    2.657354
     10          7           0        1.864879   -0.446744    2.540455
     11          8           0        2.660248   -0.616905    1.450363
     12          6           0       -1.402172   -0.367645   -2.479703
     13          6           0        0.885750    0.353998   -2.385508
     14          1           0       -2.627057    0.455023    2.299895
     15          7           0       -0.750477    0.090305    4.088927
     16          6           0       -1.351926   -0.374493   -3.858389
     17          1           0       -2.317672   -0.687138   -1.993026
     18          6           0        0.942412    0.360685   -3.765291
     19          1           0        1.766615    0.645106   -1.826842
     20          8           0       -1.867721    0.306952    4.545607
     21          8           0        0.245612   -0.099801    4.775884
     22          6           0       -0.176067   -0.003204   -4.533038
     23          1           0       -2.223645   -0.677133   -4.430580
     24          1           0        1.859645    0.654924   -4.266396
     25          7           0       -0.136389    0.046184   -5.906064
     26          1           0        0.776015    0.017162   -6.340012
     27          1           0       -0.832724   -0.490164   -6.405049
 ---------------------------------------------------------------------

 SCF Done:  E(RCAM-B3LYP) =  -906.174078094     A.U. after    1 cycles

 Excitation energies and oscillator strengths:

 Excited state symmetry could not be determined.
 Excited State   1:      Singlet-?Sym    2.9572 eV  419.26 nm  f=0.8342  <S**2>=0.000
      20 -> 75        -0.00013
      20 -> 76        -0.00021
      20 -> 77        -0.00026
      20 -> 78        -0.00010
      20 -> 80        -0.00033
      20 -> 82        -0.00023
      20 -> 84        -0.00036
      20 -> 85        -0.00046
      20 -> 86         0.00016
      20 -> 87         0.00056
      20 -> 88         0.00070
      20 -> 89        -0.00092
      20 -> 90        -0.00115
      20 -> 91         0.00029
      20 -> 92         0.00024
      20 -> 94         0.00012
      20 -> 96         0.00019
      20 -> 98        -0.00022
      20 ->100        -0.00047
      20 ->101        -0.00053
      20 ->102         0.00013
      20 ->103        -0.00030
      20 ->104         0.00028
      20 ->105         0.00017
      20 ->106         0.00018
      20 ->107        -0.00015
      20 ->109        -0.00020
      20 ->112         0.00017
      20 ->120         0.00011
      20 ->121         0.00017
      20 ->122         0.00012
      20 ->123         0.00010
      20 ->126        -0.00021
      20 ->129        -0.00012
      20 ->130         0.00013
      20 ->134         0.00010
      20 ->136         0.00024
      20 ->139        -0.00010
      20 ->148         0.00013
      20 ->152        -0.00012
      20 ->153        -0.00013
      20 ->155         0.00015
      20 ->158        -0.00010
      20 ->168         0.00018
      20 ->175        -0.00010
      20 ->176         0.00017
      20 ->182        -0.00011
      20 ->185         0.00012
      20 ->187        -0.00018
      20 ->191         0.00015
      20 ->193         0.00012
      20 ->194        -0.00017
      20 ->195         0.00015
      20 ->196         0.00027
      20 ->197         0.00016
      20 ->218         0.00010
      20 ->284         0.00013
      21 -> 71         0.00014
      21 -> 74         0.00020
      21 -> 75         0.00050
      21 -> 76         0.00090
      21 -> 77        -0.00058
      21 -> 78        -0.00059
      21 -> 79         0.00017
      21 -> 80        -0.00039
      21 -> 81         0.00019
      21 -> 83         0.00026
      21 -> 84        -0.00067
      21 -> 85        -0.00017
      21 -> 86         0.00030
      21 -> 87         0.00038
      21 -> 89         0.00014
      21 -> 90         0.00021
      21 -> 91        -0.00033
      21 -> 92        -0.00036
      21 -> 98         0.00046
      21 -> 99         0.00033
      21 ->102        -0.00013
      21 ->106        -0.00034
      21 ->108        -0.00017
      21 ->112         0.00011
      21 ->117        -0.00010
      21 ->118         0.00012
      21 ->120         0.00010
      21 ->123         0.00012
      21 ->125        -0.00011
      21 ->129         0.00013
      21 ->130         0.00010
      21 ->146         0.00011
      21 ->149        -0.00013
      21 ->156        -0.00010
      21 ->162        -0.00011
      21 ->165         0.00012
      21 ->167         0.00013
      21 ->171         0.00013
      21 ->176         0.00014
      21 ->182        -0.00011
      21 ->199         0.00010
      22 -> 74        -0.00023
      22 -> 75         0.00016
      22 -> 77         0.00013
      22 -> 80        -0.00020
      22 -> 82        -0.00020
      22 -> 83        -0.00010
      22 -> 85        -0.00018
      22 -> 86        -0.00043
      22 -> 87         0.00027
      22 -> 89         0.00032
      22 -> 90        -0.00041
      22 -> 91        -0.00018
      22 -> 92         0.00017
      22 -> 93        -0.00017
      22 -> 94         0.00035
      22 -> 96         0.00022
      22 -> 97        -0.00037
      22 -> 99        -0.00056
      22 ->103        -0.00013
      22 ->106        -0.00052
      22 ->108        -0.00021
      22 ->109         0.00036
      22 ->110        -0.00028
      22 ->112         0.00019
      22 ->113        -0.00027
      22 ->114         0.00032
      22 ->115         0.00010
      22 ->116        -0.00013
      22 ->118         0.00021
      22 ->119         0.00011
      22 ->122        -0.00011
      22 ->123         0.00012
      22 ->125        -0.00026
      22 ->126         0.00024
      22 ->128        -0.00010
      22 ->129        -0.00016
      22 ->130         0.00040
      22 ->131         0.00012
      22 ->132         0.00035
      22 ->133        -0.00051
      22 ->134        -0.00061
      22 ->139        -0.00023
      22 ->140         0.00013
      22 ->149         0.00013
      22 ->155         0.00013
      22 ->164        -0.00012
      22 ->168         0.00011
      22 ->170         0.00011
      22 ->171        -0.00018
      22 ->177        -0.00021
      22 ->187         0.00011
      22 ->194         0.00014
      22 ->195         0.00015
      22 ->196         0.00030
      22 ->198        -0.00021
      22 ->199        -0.00030
      22 ->201         0.00042
      22 ->202        -0.00015
      22 ->205         0.00033
      22 ->206         0.00024
      22 ->211         0.00011
      22 ->232        -0.00011
      22 ->245         0.00012
      22 ->249         0.00013
      22 ->266        -0.00012
      22 ->270        -0.00017
      22 ->271         0.00021
      22 ->287        -0.00014
      23 -> 67         0.00030
      23 -> 68         0.00034
      23 -> 69        -0.00018
      23 -> 71        -0.00013
      23 -> 72         0.00021
      23 -> 74         0.00026
      23 -> 75        -0.00120
      23 -> 76        -0.00125
      23 -> 77        -0.00058
      23 -> 78         0.00023
      23 -> 79        -0.00014
      23 -> 80         0.00022
      23 -> 81        -0.00046
      23 -> 82        -0.00024
      23 -> 83        -0.00015
      23 -> 84         0.00020
      23 -> 87         0.00069
      23 -> 88         0.00054
      23 -> 89        -0.00039
      23 -> 90         0.00033
      23 -> 91        -0.00075
      23 -> 93         0.00028
      23 -> 94        -0.00099
      23 -> 96        -0.00050
      23 -> 97         0.00051
      23 -> 98         0.00049
      23 -> 99        -0.00051
      23 ->100        -0.00027
      23 ->102        -0.00081
      23 ->104         0.00013
      23 ->105        -0.00021
      23 ->110        -0.00060
      23 ->113        -0.00017
      23 ->114         0.00036
      23 ->115         0.00016
      23 ->117         0.00016
      23 ->118        -0.00010
      23 ->122         0.00017
      23 ->126         0.00013
      23 ->134         0.00011
      23 ->139        -0.00012
      23 ->143         0.00011
      23 ->150         0.00015
      23 ->153         0.00020
      23 ->154        -0.00034
      23 ->155        -0.00019
      23 ->159        -0.00021
      23 ->160        -0.00017
      23 ->162         0.00013
      23 ->164         0.00020
      23 ->166        -0.00013
      23 ->175        -0.00034
      23 ->177         0.00015
      23 ->196         0.00017
      23 ->197        -0.00014
      23 ->199        -0.00031
      23 ->204        -0.00011
      23 ->220         0.00010
      23 ->223        -0.00011
      23 ->229         0.00011
      24 -> 67        -0.00027
      24 -> 68        -0.00012
      24 -> 69        -0.00020
      24 -> 72        -0.00029
      24 -> 73        -0.00198
      24 -> 74        -0.00039
      24 -> 75        -0.00102
      24 -> 76         0.00022
      24 -> 77        -0.00031
      24 -> 78        -0.00018
      24 -> 79        -0.00020
      24 -> 81         0.00072
      24 -> 82         0.00025
      24 -> 83         0.00075
      24 -> 85         0.00040
      24 -> 87         0.00012
      24 -> 88         0.00020
      24 -> 89        -0.00040
      24 -> 91        -0.00056
      24 -> 93         0.00035
      24 -> 94        -0.00087
      24 -> 95         0.00021
      24 -> 97         0.00051
      24 -> 98        -0.00103
      24 -> 99        -0.00088
      24 ->100        -0.00049
      24 ->101        -0.00073
      24 ->102         0.00036
      24 ->104        -0.00016
      24 ->105        -0.00012
      24 ->107         0.00086
      24 ->113        -0.00020
      24 ->114         0.00017
      24 ->116         0.00028
      24 ->118         0.00016
      24 ->120        -0.00015
      24 ->121        -0.00024
      24 ->122        -0.00034
      24 ->123        -0.00016
      24 ->124        -0.00022
      24 ->125        -0.00013
      24 ->126         0.00034
      24 ->128        -0.00016
      24 ->132        -0.00016
      24 ->133         0.00021
      24 ->136        -0.00011
      24 ->139        -0.00030
      24 ->141         0.00012
      24 ->144        -0.00036
      24 ->146        -0.00017
      24 ->147         0.00056
      24 ->148        -0.00032
      24 ->150        -0.00014
      24 ->152         0.00045
      24 ->154         0.00016
      24 ->155        -0.00051
      24 ->157         0.00016
      24 ->158         0.00026
      24 ->159         0.00016
      24 ->160         0.00017
      24 ->161         0.00011
      24 ->162         0.00013
      24 ->163         0.00024
      24 ->166         0.00011
      24 ->167        -0.00022
      24 ->171        -0.00015
      24 ->173         0.00012
      24 ->177         0.00013
      24 ->178        -0.00021
      24 ->194        -0.00012
      24 ->195         0.00022
      24 ->198         0.00012
      24 ->199        -0.00017
      24 ->216         0.00023
      24 ->220        -0.00014
      24 ->221         0.00014
      24 ->223        -0.00016
      24 ->227         0.00010
      25 -> 67        -0.00014
      25 -> 69        -0.00044
      25 -> 70        -0.00023
      25 -> 71        -0.00029
      25 -> 72        -0.00060
      25 -> 73        -0.00270
      25 -> 74        -0.00024
      25 -> 75        -0.00061
      25 -> 76         0.00117
      25 -> 77         0.00091
      25 -> 78         0.00014
      25 -> 79        -0.00038
      25 -> 80        -0.00067
      25 -> 81         0.00031
      25 -> 82        -0.00068
      25 -> 83        -0.00012
      25 -> 84         0.00038
      25 -> 85        -0.00020
      25 -> 86        -0.00021
      25 -> 87        -0.00035
      25 -> 89        -0.00028
      25 -> 90         0.00027
      25 -> 92        -0.00039
      25 -> 93        -0.00029
      25 -> 94         0.00029
      25 -> 95        -0.00011
      25 -> 96         0.00024
      25 -> 97        -0.00075
      25 -> 98         0.00045
      25 -> 99         0.00051
      25 ->100         0.00021
      25 ->101         0.00052
      25 ->102        -0.00060
      25 ->103         0.00017
      25 ->105         0.00035
      25 ->107         0.00074
      25 ->108        -0.00010
      25 ->109        -0.00053
      25 ->110         0.00024
      25 ->112         0.00050
      25 ->114         0.00014
      25 ->116         0.00027
      25 ->121         0.00014
      25 ->123         0.00016
      25 ->125         0.00014
      25 ->126        -0.00025
      25 ->128        -0.00029
      25 ->129         0.00017
      25 ->132         0.00022
      25 ->138         0.00011
      25 ->139         0.00015
      25 ->142         0.00011
      25 ->144        -0.00031
      25 ->146        -0.00041
      25 ->147         0.00077
      25 ->148         0.00011
      25 ->149        -0.00061
      25 ->150        -0.00032
      25 ->151         0.00016
      25 ->152        -0.00016
      25 ->153        -0.00010
      25 ->155         0.00026
      25 ->156        -0.00016
      25 ->158        -0.00013
      25 ->159         0.00031
      25 ->160        -0.00011
      25 ->161         0.00011
      25 ->162         0.00021
      25 ->163        -0.00022
      25 ->164         0.00021
      25 ->166        -0.00020
      25 ->169        -0.00031
      25 ->176        -0.00015
      25 ->177        -0.00016
      25 ->178        -0.00012
      25 ->187         0.00016
      25 ->190        -0.00012
      25 ->194        -0.00015
      25 ->195         0.00023
      25 ->196        -0.00016
      25 ->198        -0.00010
      25 ->217         0.00014
      25 ->220         0.00010
      25 ->225        -0.00015
      25 ->227         0.00011
      25 ->228         0.00014
      25 ->252        -0.00011
      25 ->285        -0.00011
      26 -> 68        -0.00012
      26 -> 69         0.00046
      26 -> 70        -0.00016
      26 -> 71         0.00043
      26 -> 72         0.00050
      26 -> 73         0.00176
      26 -> 74         0.00037
      26 -> 75         0.00087
      26 -> 76         0.00024
      26 -> 77        -0.00010
      26 -> 78        -0.00022
      26 -> 79         0.00022
      26 -> 82         0.00033
      26 -> 83        -0.00028
      26 -> 84         0.00020
      26 -> 85         0.00044
      26 -> 86         0.00022
      26 -> 87         0.00017
      26 -> 88        -0.00144
      26 -> 89        -0.00137
      26 -> 90         0.00049
      26 -> 92        -0.00056
      26 -> 93        -0.00020
      26 -> 94        -0.00029
      26 -> 95         0.00055
      26 -> 96         0.00030
      26 -> 97        -0.00043
      26 -> 98        -0.00057
      26 -> 99        -0.00055
      26 ->101         0.00023
      26 ->102        -0.00039
      26 ->103        -0.00032
      26 ->104         0.00026
      26 ->105         0.00010
      26 ->106        -0.00042
      26 ->107         0.00079
      26 ->108        -0.00029
      26 ->109         0.00013
      26 ->110        -0.00036
      26 ->111         0.00030
      26 ->113         0.00021
      26 ->114        -0.00012
      26 ->115         0.00028
      26 ->116         0.00023
      26 ->117        -0.00016
      26 ->119        -0.00011
      26 ->121        -0.00031
      26 ->122        -0.00025
      26 ->124         0.00027
      26 ->126        -0.00043
      26 ->127        -0.00010
      26 ->128         0.00026
      26 ->129        -0.00036
      26 ->130         0.00018
      26 ->132        -0.00018
      26 ->139         0.00015
      26 ->141        -0.00019
      26 ->142         0.00014
      26 ->147        -0.00041
      26 ->148         0.00045
      26 ->150         0.00020
      26 ->151         0.00019
      26 ->152         0.00031
      26 ->153        -0.00022
      26 ->155         0.00019
      26 ->158         0.00014
      26 ->159        -0.00022
      26 ->161        -0.00022
      26 ->162        -0.00035
      26 ->164        -0.00028
      26 ->166         0.00018
      26 ->167        -0.00025
      26 ->173         0.00014
      26 ->176         0.00031
      26 ->178         0.00018
      26 ->182        -0.00012
      26 ->187        -0.00013
      26 ->195        -0.00012
      26 ->211        -0.00013
      26 ->212         0.00015
      26 ->223         0.00014
      27 -> 67        -0.00020
      27 -> 69        -0.00010
      27 -> 72         0.00013
      27 -> 74        -0.00124
      27 -> 75         0.00025
      27 -> 77        -0.00074
      27 -> 78        -0.00062
      27 -> 80         0.00022
      27 -> 81         0.00080
      27 -> 82         0.00095
      27 -> 83         0.00124
      27 -> 84        -0.00115
      27 -> 85         0.00043
      27 -> 86         0.00031
      27 -> 87         0.00046
      27 -> 88         0.00111
      27 -> 89         0.00070
      27 -> 90         0.00010
      27 -> 91        -0.00032
      27 -> 92         0.00056
      27 -> 93         0.00047
      27 -> 94        -0.00027
      27 -> 97         0.00021
      27 -> 98        -0.00072
      27 ->100        -0.00108
      27 ->101        -0.00118
      27 ->102         0.00022
      27 ->106         0.00031
      27 ->109         0.00052
      27 ->110         0.00011
      27 ->112        -0.00058
      27 ->113        -0.00044
      27 ->117        -0.00022
      27 ->118         0.00063
      27 ->119         0.00027
      27 ->120        -0.00021
      27 ->121        -0.00055
      27 ->122        -0.00020
      27 ->123         0.00010
      27 ->125        -0.00047
      27 ->126         0.00042
      27 ->129         0.00048
      27 ->130         0.00038
      27 ->131         0.00033
      27 ->132        -0.00044
      27 ->133         0.00066
      27 ->134         0.00021
      27 ->136        -0.00040
      27 ->137         0.00020
      27 ->139        -0.00047
      27 ->144        -0.00012
      27 ->146         0.00020
      27 ->148        -0.00042
      27 ->149         0.00032
      27 ->152         0.00042
      27 ->153         0.00060
      27 ->154        -0.00029
      27 ->155        -0.00041
      27 ->157         0.00021
      27 ->161        -0.00019
      27 ->162         0.00023
      27 ->163         0.00033
      27 ->165         0.00026
      27 ->166         0.00022
      27 ->167        -0.00015
      27 ->168         0.00015
      27 ->169         0.00011
      27 ->171        -0.00033
      27 ->175        -0.00024
      27 ->178        -0.00019
      27 ->196        -0.00011
      27 ->198         0.00022
      27 ->201         0.00021
      27 ->208        -0.00015
      27 ->212        -0.00010
      27 ->218         0.00014
      27 ->220        -0.00013
      28 -> 67        -0.00033
      28 -> 69        -0.00036
      28 -> 73        -0.00126
      28 -> 74        -0.00068
      28 -> 75        -0.00020
      28 -> 76         0.00143
      28 -> 77        -0.00033
      28 -> 78        -0.00080
      28 -> 80         0.00038
      28 -> 82         0.00087
      28 -> 83        -0.00051
      28 -> 84         0.00074
      28 -> 85         0.00113
      28 -> 86         0.00077
      28 -> 87        -0.00062
      28 -> 88        -0.00189
      28 -> 89        -0.00146
      28 -> 90         0.00013
      28 -> 91         0.00072
      28 -> 92        -0.00076
      28 -> 93        -0.00033
      28 -> 95         0.00049
      28 -> 96        -0.00020
      28 -> 97         0.00046
      28 -> 98         0.00046
      28 -> 99        -0.00116
      28 ->100         0.00017
      28 ->101         0.00029
      28 ->102         0.00057
      28 ->103        -0.00103
      28 ->104        -0.00019
      28 ->105        -0.00057
      28 ->106        -0.00107
      28 ->107        -0.00032
      28 ->109         0.00063
      28 ->110        -0.00080
      28 ->111        -0.00016
      28 ->112        -0.00011
      28 ->114        -0.00048
      28 ->115        -0.00052
      28 ->117        -0.00020
      28 ->118         0.00066
      28 ->119         0.00018
      28 ->120        -0.00050
      28 ->121        -0.00043
      28 ->122        -0.00033

 Alpha  occ. eigenvalues --  -19.37108 -19.26367 -19.26207 -14.66509 -14.49957
 Alpha  occ. eigenvalues --  -14.49432 -14.41980 -10.34049 -10.34007 -10.33562
 Alpha  occ. eigenvalues --  -10.32292 -10.31768 -10.31560 -10.29356 -10.27823
 Alpha  occ. eigenvalues --  -10.27612 -10.27428 -10.26417 -10.26321  -1.32515
 Alpha  occ. eigenvalues --   -1.30339  -1.14461  -1.02038  -1.01399  -1.01072
 Alpha  occ. eigenvalues --   -0.94305  -0.93700  -0.90115  -0.83793  -0.83569
 Alpha  occ. eigenvalues --   -0.78508  -0.76548  -0.74591  -0.70123  -0.69454
 Alpha  occ. eigenvalues --   -0.66154  -0.63393  -0.62747  -0.62323  -0.61024
 Alpha  occ. eigenvalues --   -0.60203  -0.59607  -0.58630  -0.57957  -0.56947
 Alpha  occ. eigenvalues --   -0.52818  -0.51138  -0.50031  -0.49401  -0.48891
 Alpha  occ. eigenvalues --   -0.47423  -0.46932  -0.46125  -0.44892  -0.42373
 Alpha  occ. eigenvalues --   -0.42021  -0.41182  -0.40033  -0.38674  -0.38442
 Alpha  occ. eigenvalues --   -0.38221  -0.36617  -0.36339  -0.32205  -0.31755
 Alpha  occ. eigenvalues --   -0.25525
 Alpha virt. eigenvalues --   -0.07750  -0.01617   0.02955   0.04028   0.05152
 Alpha virt. eigenvalues --    0.09477   0.13963   0.14507   0.16012   0.16061
 Alpha virt. eigenvalues --    0.17273   0.18125   0.20449   0.21771   0.22780

 Mulliken charges:
               1
     1  C    0.171831
     2  C    0.191528
     3  C   -0.245971
     4  C    0.288654
     5  N   -0.229896
     6  C    0.065206
     7  C   -0.158872
     8  H    0.189678
     9  C    0.309695
    10  N   -0.250367
    11  O   -0.189938
    12  C   -0.183885
    13  C   -0.179377
    14  H    0.215686
    15  N    0.380397
    16  C   -0.201923
    17  H    0.166995
    18  C   -0.204784
    19  H    0.172836
    20  O   -0.430695
    21  O   -0.426989
    22  C    0.328766
    23  H    0.158888
    24  H    0.158026
    25  N   -0.810295
    26  H    0.357473
    27  H    0.357331
 Sum of Mulliken charges =  -0.00000

 Dipole moment (field-independent basis, Debye):
    X=             -3.6987    Y=             -0.1762    Z=            -11.7080  Tot=             12.2796
 Quadrupole moment (field-independent basis, Debye-Ang):
   XX=           -104.9834   YY=           -107.2987   ZZ=           -106.2129
   XY=              5.0905   XZ=             -2.9446   YZ=              7.7446

 Normal termination of Gaussian 16 at Wed Jul 23 12:47:04 2025.
